LAMMPS '*.data' description 

       48 atoms
       3 atom types
       
    0.0 10.12574     xlo xhi
    0.0 10.12574     ylo yhi
    0.0 7.15998      zlo zhi
    
Atoms

	1 1 0.000000 2.582057 1.825790
	2 1 2.582064 5.062863 5.334180
	3 1 -2.531435 5.012234 5.405780
	4 1 -0.050629 7.594299 1.754190
	5 1 0.000000 10.044735 7.102700
	6 1 -0.081006 5.062870 0.057280
	7 1 2.531435 2.612441 3.522710
	8 1 -2.450429 2.531435 3.637270
	9 1 5.062870 7.644927 1.825790
	10 1 2.531435 10.075105 5.405780
	11 1 4.981864 10.125741 0.057280
	12 1 2.612441 7.594305 3.637270
	13 1 -2.480806 10.125734 5.334180
	14 1 -2.531435 7.675312 3.522710
	15 1 5.012242 2.531428 1.754190
	16 1 5.062870 4.981864 7.102700
	17 2 0.000000 1.265717 0.894997
	18 2 1.265721 5.062870 6.264980
	19 2 -2.531435 6.328584 4.474990
	20 2 1.265714 7.594306 2.684990
	21 2 0.000000 6.682993 0.429599
	22 2 -3.442747 5.062870 6.730380
	23 2 -1.417601 3.037724 2.434390
	24 2 -1.417601 7.088017 2.434390
	25 2 3.037724 3.645269 4.725590
	26 2 0.911312 2.531435 3.150390
	27 2 -1.113835 4.556582 6.014380
	28 2 3.949036 5.569159 6.014380
	29 2 -3.037724 3.645269 4.725590
	30 2 2.531435 5.974183 4.009590
	31 2 -0.506288 9.011906 1.145600
	32 2 0.506288 3.949036 1.145600
	33 2 5.062870 6.328587 0.894997
	34 2 1.620123 10.125741 6.730380
	35 2 3.645270 8.100594 2.434390
	36 2 3.949036 9.619452 6.014380
	37 2 2.025146 8.708140 4.725590
	38 2 -3.797156 2.531435 2.684990
	39 2 -1.113835 0.506288 6.014380
	40 2 -2.531435 0.911312 4.009590
	41 2 -3.797149 10.125741 6.264980
	42 2 -2.025146 8.708140 4.725590
	43 2 -4.151558 7.594306 3.150390
	44 2 -4.556582 9.011906 1.145600
	45 2 2.531435 1.265714 4.474990
	46 2 5.062870 1.620123 0.429599
	47 2 3.645270 2.025147 2.434390
	48 2 4.556582 3.949036 1.145600
	
	
	
	
	
